# vtk DataFile Version 3.0
vtk output
ASCII
DATASET STRUCTURED_POINTS
DIMENSIONS 48 48 48
SPACING 1 1 1
ORIGIN 0 0 0
POINT_DATA 110592
SCALARS ImageScalars float 3
LOOKUP_TABLE default
-0.00603248 -0.0966396 -0.000732792 0.000530014 -0.0986189 -0.000806706 0.00684929 -0.100098 -0.000876566 
0.0129235 -0.101102 -0.000942341 0.0187515 -0.101656 -0.00100401 0.0243333 -0.101786 -0.00106158 
0.0296699 -0.101518 -0.00111507 0.0347635 -0.100881 -0.0011645 0.0396175 -0.0999022 -0.00120994 
0.0442363 -0.0986087 -0.00125146 0.0486258 -0.0970289 -0.00128915 0.0527931 -0.0951901 -0.00132315 
0.0567461 -0.0931193 -0.00135357 0.060494 -0.0908426 -0.00138057 0.0640468 -0.0883853 -0.00140433 
0.0674149 -0.0857713 -0.001425 0.0706091 -0.083023 -0.00144278 0.0736404 -0.0801616 -0.00145784 
0.0765194 -0.0772063 -0.00147036 0.0792559 -0.0741751 -0.00148051 0.0818589 -0.071084 -0.00148843 
0.084336 -0.0679482 -0.00149425 0.0866932 -0.0647811 -0.00149808 0.0889345 -0.0615957 -0.00149997 
0.0910622 -0.0584043 -0.00149997 0.0930761 -0.0552189 -0.00149808 0.0949743 -0.0520519 -0.00149425 
0.0967525 -0.048916 -0.00148843 0.0984048 -0.0458249 -0.00148051 0.0999236 -0.0427937 -0.00147036 
0.1013 -0.0398384 -0.00145784 0.102524 -0.036977 -0.00144278 0.103585 -0.0342287 -0.001425 
0.104472 -0.0316147 -0.00140433 0.105175 -0.0291574 -0.00138057 0.105682 -0.0268808 -0.00135357 
0.105985 -0.0248099 -0.00132315 0.106073 -0.0229711 -0.00128915 0.105938 -0.0213913 -0.00125146 
0.105575 -0.0200978 -0.00120994 0.104976 -0.0191187 -0.0011645 0.104138 -0.0184816 -0.00111507 
0.103057 -0.0182143 -0.00106158 0.10173 -0.0183441 -0.00100401 0.100158 -0.0188979 -0.000942341 
0.0983387 -0.0199018 -0.000876566 0.0962747 -0.0213811 -0.000806706 0.0939675 -0.0233604 -0.000732792 
-0.00244603 -0.0989576 -0.000821705 0.00389525 -0.100695 -0.000894513 0.00999301 -0.10193 -0.000963114 
0.0158452 -0.102688 -0.00102747 0.0214509 -0.102995 -0.00108757 0.0268101 -0.102879 -0.00114341 
0.031924 -0.102367 -0.00119501 0.0367952 -0.101489 -0.00124242 0.0414277 -0.100273 -0.0012857 
0.0458267 -0.0987484 -0.00132495 0.0499991 -0.0969442 -0.00136028 0.0539531 -0.0948893 -0.00139184 
0.057698 -0.0926117 -0.00141978 0.0612448 -0.0901387 -0.0014443 0.0646051 -0.0874962 -0.0014656 
0.0677914 -0.0847087 -0.00148389 0.0708166 -0.081799 -0.00149941 0.0736939 -0.0787879 -0.00151236 
0.0764359 -0.0756944 -0.00152297 0.0790546 -0.0725352 -0.00153146 0.0815609 -0.0693255 -0.001538 
0.0839638 -0.0660785 -0.00154276 0.0862708 -0.0628059 -0.00154586 0.0884869 -0.0595185 -0.00154738 
0.0906145 -0.0562262 -0.00154738 0.0926538 -0.0529388 -0.00154586 0.0946021 -0.0496662 -0.00154276 
0.0964545 -0.0464192 -0.001538 0.0982036 -0.0432094 -0.00153146 0.0998402 -0.0400503 -0.00152297 
0.101353 -0.0369568 -0.00151236 0.102732 -0.0339457 -0.00149941 0.103962 -0.0310359 -0.00148389 
0.105031 -0.0282485 -0.0014656 0.105926 -0.025606 -0.0014443 0.106634 -0.023133 -0.00141978 
0.107145 -0.0208554 -0.00139184 0.107446 -0.0188005 -0.00136028 0.107529 -0.0169963 -0.00132495 
0.107385 -0.0154716 -0.0012857 0.107008 -0.0142556 -0.00124242 0.106392 -0.0133773 -0.00119501 
0.105533 -0.0128658 -0.00114341 0.10443 -0.0127497 -0.00108757 0.103079 -0.013057 -0.00102747 
0.101482 -0.013815 -0.000963114 0.0996399 -0.0150499 -0.000894514 0.097554 -0.0167871 -0.000821705 
0.000511785 -0.101051 -0.000906127 0.0066248 -0.102546 -0.00097762 0.0124933 -0.103535 -0.00104473 
0.0181152 -0.104047 -0.00110741 0.0234893 -0.104107 -0.00116565 0.0286158 -0.103744 -0.00121944 
0.0334961 -0.102988 -0.00126882 0.038133 -0.101869 -0.00131384 0.0425312 -0.100417 -0.00135457 
0.0466966 -0.0986623 -0.00139112 0.0506371 -0.0966366 -0.00142364 0.0543622 -0.0943696 -0.0014523 
0.0578829 -0.0918911 -0.00147729 0.0612118 -0.0892293 -0.00149884 0.0643626 -0.0864113 -0.00151719 
0.0673503 -0.0834623 -0.00153262 0.0701901 -0.0804053 -0.0015454 0.0728977 -0.0772611 -0.0015558 
0.0754884 -0.074048 -0.0015641 0.0779765 -0.0707821 -0.00157057 0.0803752 -0.0674766 -0.00157543 
0.0826956 -0.064143 -0.00157889 0.0849467 -0.0607908 -0.0015811 0.0871345 -0.0574279 -0.00158218 
0.0892621 -0.0540615 -0.00158218 0.0913297 -0.0506986 -0.0015811 0.0933339 -0.0473463 -0.00157889 
0.0952688 -0.0440127 -0.00157543 0.0971254 -0.0407073 -0.00157057 0.0988926 -0.0374413 -0.0015641 
0.100557 -0.0342283 -0.0015558 0.102105 -0.0310841 -0.0015454 0.10352 -0.0280271 -0.00153262 
0.104788 -0.025078 -0.00151719 0.105893 -0.02226 -0.00149884 0.106819 -0.0195983 -0.00147729 
0.107554 -0.0171197 -0.0014523 0.108084 -0.0148528 -0.00142364 0.108399 -0.0128271 -0.00139112 
0.108489 -0.0110728 -0.00135457 0.108346 -0.00962063 -0.00131384 0.107964 -0.0085013 -0.00126882 
0.107339 -0.00774531 -0.00121944 0.106468 -0.00738269 -0.00116565 0.105349 -0.00744276 -0.00110741 
0.103983 -0.00795395 -0.00104473 0.102369 -0.00894371 -0.00097762 0.100512 -0.0104383 -0.000906127 
0.00286252 -0.102913 -0.000985928 0.00874056 -0.104164 -0.00105588 0.0143725 -0.104907 -0.00112123 
0.0197558 -0.10517 -0.00118195 0.0248893 -0.104981 -0.00123802 0.0297731 -0.104371 -0.00128942 
0.0344087 -0.103369 -0.00133619 0.0387992 -0.102008 -0.0013784 0.0429497 -0.100319 -0.00141613 
0.0468671 -0.0983358 -0.0014495 0.0505601 -0.0960903 -0.0014787 0.0540396 -0.0936147 -0.00150391 
0.0573184 -0.0909402 -0.00152538 0.0604111 -0.0880968 -0.00154338 0.0633339 -0.0851128 -0.00155821 
0.0661041 -0.0820142 -0.00157019 0.06874 -0.0788246 -0.00157967 0.0712602 -0.0755648 -0.001587 
0.0736831 -0.0722527 -0.0015925 0.076026 -0.0689028 -0.00159652 0.0783047 -0.065527 -0.00159933 
0.0805329 -0.0621341 -0.00160121 0.0827213 -0.0587309 -0.00160234 0.0848774 -0.0553222 -0.00160287 
0.0870051 -0.0519118 -0.00160287 0.0891043 -0.0485032 -0.00160234 0.0911712 -0.0451 -0.00160121 
0.0931983 -0.0417071 -0.00159933 0.0951749 -0.0383312 -0.00159652 0.0970874 -0.0349814 -0.0015925 
0.0989198 -0.0316692 -0.001587 0.100655 -0.0284095 -0.00157967 0.102274 -0.0252199 -0.00157019 
0.103759 -0.0221213 -0.00155821 0.105092 -0.0191372 -0.00154338 0.106255 -0.0162938 -0.00152538 
0.107231 -0.0136193 -0.00150391 0.108007 -0.0111437 -0.0014787 0.108569 -0.00889827 -0.0014495 
0.108907 -0.006915 -0.00141613 0.109012 -0.00522645 -0.0013784 0.108877 -0.00386514 -0.00133619 
0.108497 -0.00286329 -0.00128942 0.107868 -0.00225256 -0.00123802 0.10699 -0.00206374 -0.00118195 
0.105862 -0.00232662 -0.00112123 0.104485 -0.00306979 -0.00105588 0.102863 -0.00432062 -0.000985928 
0.00462934 -0.104539 -0.00106098 0.0102661 -0.105544 -0.00112914 0.0156545 -0.106038 -0.00119246 
0.0207915 -0.10605 -0.00125091 0.0256757 -0.10561 -0.00130445 0.030307 -0.104749 -0.00135307 
0.0346869 -0.103498 -0.00139681 0.0388187 -0.101893 -0.00143574 0.0427079 -0.0999664 -0.00146995 
0.0463621 -0.0977534 -0.00149959 0.0497911 -0.0952888 -0.00152487 0.0530073 -0.0926066 -0.00154601 
0.0560252 -0.0897403 -0.0015633 0.0588618 -0.0867217 -0.00157707 0.0615357 -0.0835807 -0.00158768 
0.0640674 -0.0803446 -0.00159552 0.0664786 -0.0770377 -0.00160103 0.0687914 -0.073681 -0.00160463 
0.0710276 -0.0702916 -0.00160673 0.0732084 -0.0668829 -0.00160777 0.0753528 -0.0634645 -0.00160809 
0.0774774 -0.0600427 -0.00160803 0.0795954 -0.0566208 -0.00160784 0.0817159 -0.0531997 -0.0016077 
0.0838435 -0.049779 -0.0016077 0.0859784 -0.0463579 -0.00160784 0.0881157 -0.042936 -0.00160803 
0.0902464 -0.0395142 -0.00160809 0.0923573 -0.0360959 -0.00160777 0.0944319 -0.0326871 -0.00160673 
0.0964509 -0.0292977 -0.00160463 0.0983935 -0.025941 -0.00160103 0.100238 -0.0226341 -0.00159552 
0.101961 -0.019398 -0.00158768 0.103543 -0.016257 -0.00157707 0.104961 -0.0132384 -0.0015633 
0.106199 -0.0103721 -0.00154601 0.107238 -0.00768994 -0.00152487 0.108064 -0.00522529 -0.00149959 
0.108665 -0.00301238 -0.00146995 0.109032 -0.00108588 -0.00143574 0.109155 0.000519578 -0.00139681 
0.10903 0.00176979 -0.00135307 0.108654 0.00263129 -0.00130445 0.108026 0.0030716 -0.00125091 
0.107144 0.00305947 -0.00119246 0.106011 0.00256502 -0.00112914 0.104629 0.0015598 -0.00106098 
0.005837 -0.105921 -0.00113118 0.011227 -0.106678 -0.00119727 0.0163655 -0.106921 -0.00125827 
0.021249 -0.106679 -0.0013141 0.0258757 -0.105983 -0.00136472 0.0302451 -0.104867 -0.00141014 
0.0343585 -0.103365 -0.00145037 0.0382194 -0.101511 -0.00148548 0.0418334 -0.099344 -0.00151559 
0.0452089 -0.0968992 -0.00154087 0.0483567 -0.0942144 -0.00156154 0.0512907 -0.0913264 -0.00157787 
0.0540272 -0.088271 -0.00159021 0.0565857 -0.0850826 -0.00159893 0.0589879 -0.081793 -0.0016045 
0.0612577 -0.0784313 -0.00160738 0.0634207 -0.0750227 -0.00160809 0.065503 -0.0715886 -0.00160717 
0.0675311 -0.0681454 -0.00160516 0.0695302 -0.0647053 -0.00160255 0.0715236 -0.0612753 -0.00159983 
0.0735314 -0.0578585 -0.0015974 0.0755698 -0.054454 -0.00159559 0.0776499 -0.0510581 -0.00159463 
0.0797776 -0.0476653 -0.00159463 0.0819528 -0.0442694 -0.00159559 0.0841697 -0.0408649 -0.0015974 
0.0864172 -0.0374481 -0.00159983 0.0886791 -0.0340181 -0.00160255 0.0909354 -0.030578 -0.00160516 
0.0931626 -0.0271348 -0.00160717 0.0953356 -0.0237007 -0.00160809 0.0974279 -0.0202921 -0.00160738 
0.0994134 -0.0169304 -0.0016045 0.101267 -0.0136408 -0.00159893 0.102963 -0.0104524 -0.00159021 
0.104482 -0.00739706 -0.00157787 0.105804 -0.00450904 -0.00156154 0.106911 -0.00182423 -0.00154087 
0.107791 0.000620545 -0.00151559 0.108432 0.00278807 -0.00148548 0.108827 0.00464128 -0.00145037 
0.108968 0.00614369 -0.00141014 0.108854 0.00725979 -0.00136472 0.108483 0.00795527 -0.0013141 
0.107855 0.00819725 -0.00125827 0.106972 0.00795447 -0.00119727 0.105837 0.00719733 -0.00113118 
0.00651194 -0.107055 -0.00119642 0.0116504 -0.107561 -0.00126017 0.0165335 -0.107548 -0.0013185 
0.0211572 -0.107048 -0.00137135 0.0255188 -0.106093 -0.00141864 0.0296175 -0.104717 -0.00146037 
0.0334542 -0.102957 -0.00149655 0.0370322 -0.100851 -0.00152726 0.0403573 -0.0984371 -0.00155261 
0.0434383 -0.0957564 -0.00157279 0.0462871 -0.0928485 -0.00158806 0.0489188 -0.0897535 -0.00159873 
0.051352 -0.0865102 -0.0016052 0.0536087 -0.0831559 -0.00160793 0.055714 -0.0797252 -0.00160746 
0.0576956 -0.0762492 -0.00160437 0.0595837 -0.0727547 -0.0015993 0.0614095 -0.0692636 -0.0015929 
0.0632045 -0.065792 -0.00158586 0.0649993 -0.0623503 -0.00157881 0.0668221 -0.0589431 -0.00157236 
0.0686976 -0.0555693 -0.00156702 0.0706455 -0.052223 -0.00156322 0.0726798 -0.0488949 -0.00156124 
0.0748075 -0.0455732 -0.00156124 0.0770285 -0.0422451 -0.00156322 0.0793359 -0.0388988 -0.00156702 
0.0817157 -0.035525 -0.00157236 0.0841482 -0.0321177 -0.00157881 0.0866088 -0.0286761 -0.00158586 
0.0890691 -0.0252045 -0.0015929 0.0914986 -0.0217134 -0.0015993 0.0938658 -0.0182189 -0.00160437 
0.0961395 -0.0147429 -0.00160746 0.0982895 -0.0113122 -0.00160793 0.100288 -0.00795787 -0.0016052 
0.10211 -0.0047146 -0.00159873 0.103734 -0.00161955 -0.00158806 0.10514 0.00128831 -0.00157279 
0.106315 0.00396904 -0.00155261 0.107245 0.00638245 -0.00152726 0.107922 0.00848867 -0.00149655 
0.108341 0.0102486 -0.00146037 0.108498 0.0116245 -0.00141864 0.108391 0.01258 -0.00137135 
0.108023 0.0130804 -0.0013185 0.107395 0.0130931 -0.00126017 0.106512 0.0125871 -0.00119642 
0.00668223 -0.107938 -0.00125663 0.0115655 -0.108189 -0.00131773 0.0161888 -0.107916 -0.00137305 
0.0205473 -0.107152 -0.00142251 0.0246374 -0.105931 -0.00146602 0.0284575 -0.104288 -0.00150354 
0.0320081 -0.102264 -0.00153508 0.0352918 -0.0998974 -0.00156071 0.0383145 -0.0972312 -0.00158056 
0.0410853 -0.0943082 -0.00159482 0.0436167 -0.091172 -0.00160377 0.0459254 -0.0878665 -0.00160778 
0.0480319 -0.0844342 -0.00160731 0.0499611 -0.0809161 -0.00160291 0.0517416 -0.0773501 -0.00159521 
0.0534058 -0.0737702 -0.00158494 0.054989 -0.0702054 -0.00157287 0.0565282 -0.0666784 -0.00155982 
0.0580613 -0.0632054 -0.00154664 0.0596253 -0.059795 -0.00153414 0.0612545 -0.0564486 -0.00152309 
0.0629793 -0.0531604 -0.00151416 0.064824 -0.0499188 -0.00150789 0.0668057 -0.0467071 -0.00150466 
0.0689334 -0.0435057 -0.00150466 0.0712069 -0.040294 -0.00150789 0.0736176 -0.0370523 -0.00151416 
0.0761481 -0.0337642 -0.00152309 0.0787742 -0.0304178 -0.00153414 0.0814656 -0.0270074 -0.00154664 
0.0841878 -0.0235344 -0.00155982 0.0869039 -0.0200074 -0.00157287 0.0895761 -0.0164426 -0.00158494 
0.0921671 -0.0128627 -0.00159521 0.0946419 -0.00929669 -0.00160291 0.0969681 -0.00577857 -0.00160731 
0.0991169 -0.00234628 -0.00160778 0.101064 0.000959269 -0.00160377 0.102787 0.00409538 -0.00159482 
0.104272 0.00701841 -0.00158056 0.105505 0.00968465 -0.00156071 0.106476 0.012051 -0.00153508 
0.107181 0.0140755 -0.00150354 0.107616 0.0157178 -0.00146602 0.107781 0.0169393 -0.00142251 
0.107678 0.0177035 -0.00137305 0.10731 0.0179762 -0.00131773 0.106682 0.0177253 -0.00125663 
0.00637764 -0.108567 -0.00131176 0.0110033 -0.108558 -0.00136988 0.0153637 -0.10802 -0.00142183 
0.019453 -0.106985 -0.00146747 0.0232665 -0.105491 -0.0015067 0.0268015 -0.103574 -0.00153944 
0.0300575 -0.101276 -0.00156569 0.0330367 -0.0986401 -0.00158551 0.0357443 -0.0957118 -0.001599 
0.0381894 -0.0925375 -0.00160639 0.0403852 -0.0891652 -0.00160797 0.0423493 -0.0856427 -0.00160417 
0.0441045 -0.0820176 -0.0015955 0.0456784 -0.078335 -0.00158262 0.0471038 -0.0746375 -0.00156628 
0.0484179 -0.0709627 -0.00154735 0.0496621 -0.0673424 -0.00152679 0.0508804 -0.0638013 -0.00150563 
0.0521181 -0.0603555 -0.00148493 0.0534201 -0.0570122 -0.00146571 0.0548285 -0.053769 -0.00144898 
0.0563806 -0.0506148 -0.00143559 0.0581067 -0.0475306 -0.00142624 0.060028 -0.0444909 -0.00142144 
0.0621557 -0.0414666 -0.00142144 0.0644896 -0.0384269 -0.00142624 0.0670189 -0.0353426 -0.00143559 
0.0697221 -0.0321885 -0.00144898 0.072569 -0.0289453 -0.00146571 0.0755223 -0.0256019 -0.00148493 
0.07854 -0.0221562 -0.00150563 0.081577 -0.018615 -0.00152679 0.0845881 -0.0149948 -0.00154735 
0.0875293 -0.01132 -0.00156628 0.0903593 -0.00762241 -0.00158262 0.0930407 -0.00393989 -0.0015955 
0.0955408 -0.00031471 -0.00160417 0.097832 0.0032077 -0.00160797 0.0998916 0.00658004 -0.00160639 
0.101702 0.0097543 -0.001599 0.103249 0.0126827 -0.00158551 0.104526 0.0153184 -0.00156569 
0.105525 0.0176163 -0.00153944 0.106245 0.0195331 -0.0015067 0.106687 0.0210279 -0.00146747 
0.106853 0.0220624 -0.00142183 0.106748 0.0226006 -0.00136988 0.106378 0.0226091 -0.00131176 
0.00562947 -0.108939 -0.00136176 0.00999663 -0.108666 -0.00141658 0.0140927 -0.107856 -0.00146477 
0.0179104 -0.106544 -0.00150614 0.0214439 -0.104768 -0.00154055 0.024689 -0.102567 -0.00156791 
0.0276438 -0.0999845 -0.00158816 0.0303095 -0.0970678 -0.00160133 0.0326905 -0.0938653 -0.00160753 
0.0347954 -0.0904278 -0.00160697 0.0366375 -0.086808 -0.00159998 0.0382355 -0.0830589 -0.00158701 
0.0396137 -0.0792334 -0.00156867 0.0408029 -0.0753826 -0.00154569 0.0418399 -0.0715542 -0.001519 
0.0427676 -0.0677911 -0.00148962 0.0436342 -0.0641291 -0.00145875 0.044492 -0.0605954 -0.00142767 
0.0453952 -0.0572071 -0.0013977 0.0463986 -0.0539697 -0.00137017 0.0475537 -0.0508772 -0.00134637 
0.0489068 -0.0479117 -0.00132741 0.0504957 -0.0450454 -0.00131422 0.052347 -0.042242 -0.00130745 
0.0544747 -0.0394602 -0.00130745 0.0568787 -0.0366568 -0.00131422 0.0595451 -0.0337904 -0.00132741 
0.0624473 -0.0308249 -0.00134637 0.0655475 -0.0277324 -0.00137017 0.0687995 -0.0244951 -0.0013977 
0.0721515 -0.0211067 -0.00142767 0.0755491 -0.0175731 -0.00145875 0.0789378 -0.0139111 -0.00148962 
0.0822654 -0.0101479 -0.001519 0.0854837 -0.00631959 -0.00154569 0.0885499 -0.00246876 -0.00156867 
0.091427 0.00135674 -0.00158701 0.0940843 0.00510584 -0.00159998 0.0964976 0.0087257 -0.00160697 
0.098648 0.0121632 -0.00160753 0.100522 0.0153657 -0.00160133 0.102112 0.0182824 -0.00158816 
0.103412 0.0208644 -0.00156791 0.104423 0.0230655 -0.00154055 0.105144 0.0248423 -0.00150614 
0.105582 0.0261543 -0.00146477 0.105741 0.0269641 -0.00141658 0.105629 0.0272371 -0.00136176 
0.00447053 -0.109056 -0.00140666 0.00858008 -0.108513 -0.00145784 0.0124123 -0.107425 -0.00150186 
0.0159582 -0.105827 -0.00153848 0.0192103 -0.103759 -0.00156752 0.0221628 -0.101262 -0.00158882 
0.024812 -0.098383 -0.00160229 0.0271574 -0.0951714 -0.00160791 0.0292022 -0.0916797 -0.00160577 
0.0309539 -0.0879636 -0.00159606 0.0324254 -0.084081 -0.00157912 0.0336357 -0.0800912 -0.00155543 
0.0346109 -0.0760535 -0.00152567 0.0353842 -0.0720261 -0.00149069 0.035997 -0.0680636 -0.00145157 
0.0364981 -0.0642155 -0.00140957 0.0369436 -0.0605233 -0.00136612 0.0373952 -0.057018 -0.00132284 
0.0379183 -0.0537186 -0.00128141 0.0385795 -0.0506296 -0.00124354 0.0394424 -0.0477406 -0.00121088 
0.0405647 -0.0450261 -0.00118491 0.0419937 -0.0424475 -0.00116687 0.0437633 -0.0399549 -0.00115762 
0.0458909 -0.0374919 -0.00115762 0.0483767 -0.0349994 -0.00116687 0.051203 -0.0324207 -0.00118491 
0.054336 -0.0297063 -0.00121088 0.0577284 -0.0268172 -0.00124354 0.0613226 -0.0237282 -0.00128141 
0.0650547 -0.0204288 -0.00132284 0.0688584 -0.0169236 -0.00136612 0.0726683 -0.0132313 -0.00140957 
0.0764225 -0.00938317 -0.00145157 0.080065 -0.00542074 -0.00149069 0.083547 -0.00139331 -0.00152567 
0.0868272 0.00264436 -0.00155543 0.0898722 0.0066342 -0.00157912 0.092656 0.0105168 -0.00159606 
0.0951596 0.0142329 -0.00160577 0.0973702 0.0177245 -0.00160791 0.0992801 0.0209362 -0.00160229 
0.100886 0.0238152 -0.00158882 0.102189 0.026312 -0.00156752 0.103192 0.0283806 -0.00153848 
0.103902 0.0299785 -0.00150186 0.104325 0.0310667 -0.00145784 0.104471 0.0316094 -0.00140666 
0.00293492 -0.10892 -0.00144648 0.00678981 -0.108101 -0.00149367 0.0103608 -0.106728 -0.00153311 
0.0136372 -0.104835 -0.0015645 0.0166093 -0.102463 -0.00158758 0.0192692 -0.099658 -0.00160212 
0.0216111 -0.0964673 -0.00160798 0.0236323 -0.0929439 -0.00160507 0.0253338 -0.0891448 -0.00159342 
0.0267216 -0.0851309 -0.00157321 0.0278074 -0.0809659 -0.00154474 0.02861 -0.0767162 -0.00150853 
0.0291561 -0.0724491 -0.00146531 0.0294815 -0.0682312 -0.00141606 0.0296316 -0.0641261 -0.00136203 
0.0296619 -0.0601917 -0.00130472 0.0296371 -0.0564771 -0.0012459 0.0296301 -0.0530196 -0.00118757 
0.0297196 -0.0498411 -0.00113187 0.0299866 -0.046946 -0.00108103 0.0305103 -0.0443196 -0.0010372 
0.0313628 -0.0419274 -0.00100236 0.0326042 -0.0397175 -0.000978137 0.0342774 -0.0376231 -0.00096572 
0.036405 -0.0355684 -0.000965719 0.0389871 -0.033474 -0.000978137 0.0420011 -0.0312641 -0.00100236 
0.0454039 -0.0288719 -0.0010372 0.0491356 -0.0262455 -0.00108103 0.0531239 -0.0233504 -0.00113187 
0.0572897 -0.0201719 -0.00118757 0.061552 -0.0167144 -0.0012459 0.0658321 -0.0129998 -0.00130472 
0.0700571 -0.00906543 -0.00136203 0.0741623 -0.0049603 -0.00141606 0.0780922 -0.000742404 -0.00146531 
0.0818015 0.00352469 -0.00150853 0.0852542 0.00777438 -0.00154474 0.0884238 0.0119394 -0.00157321 
0.0912913 0.0159533 -0.00159342 0.093845 0.0197524 -0.00160507 0.0960792 0.0232758 -0.00160798 
0.0979926 0.0264665 -0.00160212 0.099588 0.0292719 -0.00158758 0.100871 0.0316433 -0.0015645 
0.10185 0.0335361 -0.00153311 0.102534 0.03491 -0.00149367 0.102935 0.0357281 -0.00144648 
0.0010578 -0.108533 -0.00148131 0.00466328 -0.107434 -0.00152418 0.00797838 -0.105767 -0.00155863 
0.0109902 -0.10357 -0.00158428 0.0136868 -0.100884 -0.00160079 0.0160576 -0.0977556 -0.00160784 
0.0180941 -0.0942361 -0.0016052 0.0197907 -0.0903818 -0.00159269 0.0211457 -0.0862538 -0.00157028 
0.0221624 -0.0819184 -0.00153804 0.0228504 -0.0774463 -0.00149628 0.0232272 -0.0729117 -0.00144548 
0.0233195 -0.0683913 -0.00138643 0.0231646 -0.0639621 -0.00132021 0.022812 -0.0596987 -0.00124825 
0.0223234 -0.0556701 -0.00117235 0.0217733 -0.051936 -0.00109466 0.0212474 -0.0485422 -0.00101767 
0.02084 -0.0455164 -0.000944125 0.0206507 -0.042864 -0.000876902 0.0207778 -0.040566 -0.000818862 
0.0213125 -0.0385779 -0.000772647 0.0223315 -0.0368313 -0.000740481 0.0238902 -0.0352383 -0.000723975 
0.0260178 -0.0336979 -0.000723975 0.0287145 -0.0321048 -0.000740481 0.0319508 -0.0303583 -0.000772647 
0.0356714 -0.0283702 -0.000818862 0.0397996 -0.0260722 -0.000876902 0.0442443 -0.0234198 -0.000944125 
0.0489069 -0.0203939 -0.00101767 0.0536882 -0.0170001 -0.00109466 0.0584936 -0.0132661 -0.00117235 
0.0632375 -0.00923752 -0.00124825 0.0678455 -0.00497408 -0.00132021 0.0722556 -0.000544842 -0.00138643 
0.0764187 0.00397552 -0.00144548 0.0802972 0.00851007 -0.00149628 0.0838645 0.0129822 -0.00153804 
0.0871031 0.0173176 -0.00157028 0.0900035 0.0214456 -0.00159269 0.0925622 0.0253 -0.0016052 
0.094781 0.0288194 -0.00160784 0.0966655 0.0319477 -0.00160079 0.0982243 0.0346336 -0.00158428 
0.0994677 0.036831 -0.00155863 0.100408 0.038498 -0.00152418 0.101058 0.0395972 -0.00148131 
-0.00112485 -0.107904 -0.00151127 0.00223904 -0.106518 -0.0015495 0.00530639 -0.104551 -0.00157855 
0.00806201 -0.102039 -0.00159797 0.0104912 -0.099026 -0.00160729 0.0125804 -0.0955594 -0.0016061 
0.0143177 -0.0916928 -0.00159404 0.0156941 -0.0874857 -0.0015708 0.016704 -0.0830037 -0.00153624 
0.017347 -0.0783189 -0.00149034 0.0176296 -0.0735092 -0.00143328 0.0175665 -0.068658 -0.00136554 
0.0171829 -0.0638527 -0.00128789 0.0165168 -0.0591826 -0.00120151 0.0156203 -0.0547361 -0.00110799 
0.0145614 -0.0505967 -0.00100947 0.0134248 -0.0468383 -0.000908531 0.0123107 -0.0435189 -0.000808291 
0.0113323 -0.0406753 -0.000712248 0.0106115 -0.0383165 -0.000624172 0.0102716 -0.0364203 -0.000547873 
0.0104287 -0.0349305 -0.000486941 0.0111817 -0.0337588 -0.000444433 0.0126028 -0.03279 -0.000422588 
0.0147305 -0.0318909 -0.000422588 0.0175646 -0.030922 -0.000444433 0.021067 -0.0297503 -0.000486941 
0.0251653 -0.0282605 -0.000547873 0.0297604 -0.0263643 -0.000624172 0.0347365 -0.0240056 -0.000712248 
0.0399702 -0.0211619 -0.00080829 0.0453397 -0.0178426 -0.000908531 0.0507316 -0.0140841 -0.00100947 
0.0560458 -0.00994479 -0.00110799 0.0611976 -0.00549828 -0.00120151 0.0661191 -0.000828151 -0.00128789 
0.070758 0.00397717 -0.00136554 0.0750764 0.00882834 -0.00143328 0.0790491 0.013638 -0.00149034 
0.0826614 0.0183228 -0.00153624 0.0859068 0.0228048 -0.0015708 0.0887858 0.0270119 -0.00159404 
0.0913038 0.0308786 -0.0016061 0.0934699 0.0343452 -0.00160729 0.095296 0.0373582 -0.00159797 
0.0967958 0.03987 -0.00157855 0.0979837 0.0418376 -0.0015495 0.0988752 0.0432231 -0.00151127 
-0.00357664 -0.10704 -0.00153655 -0.000443811 -0.105364 -0.00156982 0.00238716 -0.103088 -0.0015931 
0.00489852 -0.100253 -0.0016058 0.00707261 -0.0969 -0.00160733 0.00889239 -0.093079 -0.00159714 
0.0103421 -0.0888453 -0.0015747 0.0114082 -0.0842614 -0.00153957 0.0120806 -0.0793972 -0.0014914 
0.0123539 -0.0743305 -0.00143002 0.0122296 -0.069147 -0.00135549 0.0117182 -0.0639398 -0.00126814 
0.0108416 -0.0588087 -0.0011687 0.00963627 -0.0538575 -0.00105838 0.00815562 -0.0491916 -0.000938954 
0.00647294 -0.044913 -0.000812837 0.00468289 -0.0411144 -0.000683166 0.00290165 -0.0378715 -0.000553787 
0.00126471 -0.0352351 -0.000429184 -7.83371e-05 -0.0332221 -0.000314309 -0.000972321 -0.0318086 -0.000214296 
-0.00126827 -0.030926 -0.000134078 -0.00083709 -0.0304615 -7.79274e-05 0.000416863 -0.0302649 -4.90089e-05 
0.00254453 -0.0301606 -4.90089e-05 0.00554589 -0.0299641 -7.79274e-05 0.00937003 -0.0294996 -0.000134078 
0.0139213 -0.0286169 -0.000214296 0.0190706 -0.0272034 -0.000314309 0.0246689 -0.0251904 -0.000429184 
0.0305612 -0.022554 -0.000553787 0.0365978 -0.0193112 -0.000683166 0.0426432 -0.0155125 -0.000812837 
0.0485811 -0.0112339 -0.000938953 0.0543171 -0.00656804 -0.00105838 0.0597778 -0.00161687 -0.0011687 
0.0649097 0.00351429 -0.00126814 0.0696764 0.00872142 -0.00135549 0.074056 0.0139049 -0.00143002 
0.078038 0.0189716 -0.0014914 0.081621 0.0238359 -0.00153957 0.0848102 0.0284198 -0.0015747 
0.0876158 0.0326535 -0.00159714 0.0900513 0.0364744 -0.00160733 0.0921326 0.0398273 -0.0016058 
0.0938765 0.0426629 -0.0015931 0.0953009 0.0449381 -0.00156982 0.0964234 0.0466146 -0.00153655 
-0.00626124 -0.105953 -0.00155736 -0.00334604 -0.103982 -0.00158541 -0.000736684 -0.101394 -0.00160256 
0.00154639 -0.0982252 -0.00160809 0.00348231 -0.0945205 -0.00160126 0.00505024 -0.0903291 -0.00158133 
0.00622996 -0.0857078 -0.00154758 0.00700279 -0.0807216 -0.00149934 0.00735279 -0.0754441 -0.00143605 
0.00726837 -0.0699587 -0.00135728 0.00674437 -0.064359 -0.00126287 0.00578474 -0.0587484 -0.00115294 
0.00440561 -0.0532402 -0.00102808 0.0026392 -0.0479553 -0.000889426 0.000537727 -0.0430192 -0.000738843 
-0.00182248 -0.0385573 -0.000579048 -0.00433761 -0.0346873 -0.000413737 -0.00687477 -0.0315099 -0.000247641 
-0.009273 -0.0290972 -8.64915e-05 -0.0125153 -0.0270826 0.000104711 -0.0164037 -0.0257102 0.00031892 
-0.0190479 -0.025485 0.000488826 -0.0202356 -0.0261483 0.000606873 -0.0198082 -0.0273751 0.000667413 
-0.0176805 -0.0287951 0.000667413 -0.0138526 -0.0300219 0.000606873 -0.00840958 -0.0306852 0.000488826 
-0.00151011 -0.03046 0.00031892 0.00663363 -0.0290877 0.000104711 0.0141313 -0.027073 -8.64915e-05 
0.0207848 -0.0246603 -0.00024764 0.0275773 -0.0214829 -0.000413737 0.0343477 -0.017613 -0.000579048 
0.0409633 -0.013151 -0.000738843 0.04732 -0.00821497 -0.000889426 0.0533418 -0.00293001 -0.00102808 
0.0589762 0.00257821 -0.00115294 0.0641912 0.00818875 -0.00126287 0.0689705 0.0137885 -0.00135728 
0.0733102 0.0192739 -0.00143605 0.0772155 0.0245513 -0.00149934 0.080698 0.0295376 -0.00154758 
0.0837736 0.0341589 -0.00158133 0.086461 0.0383503 -0.00160126 0.0887804 0.042055 -0.00160809 
0.0907527 0.0452234 -0.00160256 0.0923986 0.047812 -0.00158541 0.0937388 0.0497831 -0.00155736 
-0.00914287 -0.104658 -0.001574 -0.00642891 -0.10239 -0.00159659 -0.00402289 -0.0994835 -0.00160731 
-0.00194792 -0.0959752 -0.00160528 -0.00022818 -0.0919077 -0.00158957 0.00111142 -0.0873306 -0.00155921 
0.00204576 -0.0823014 -0.00151324 0.00255033 -0.0768866 -0.00145071 0.00260238 -0.0711629 -0.00137075 
0.00218253 -0.0652187 -0.00127261 0.00127705 -0.0591547 -0.00115576 -0.000119238 -0.053085 -0.00102 
-0.00199909 -0.0471372 -0.000865609 -0.00433817 -0.0414512 -0.000693529 -0.00708947 -0.0361764 -0.000505569 
-0.0101773 -0.031467 -0.000304646 -0.0134913 -0.0274735 -9.50056e-05 -0.0188683 -0.023273 0.000194107 
-0.0254516 -0.0197589 0.000529693 -0.0312798 -0.0179514 0.00083619 -0.0360426 -0.0177537 0.00110164 
-0.0394285 -0.0189678 0.00131405 -0.0411574 -0.0212895 0.00146262 -0.0410159 -0.0243201 0.00153914 
-0.0388882 -0.0275948 0.00153914 -0.0347744 -0.0306254 0.00146262 -0.0287902 -0.0329471 0.00131405 
-0.021149 -0.0341612 0.00110164 -0.0121309 -0.0339635 0.00083619 -0.00204736 -0.032156 0.000529693 
0.00879124 -0.0286419 0.000194108 0.0184235 -0.0244414 -9.50056e-05 0.0259929 -0.0204479 -0.000304646 
0.033336 -0.0157385 -0.000505569 0.0403427 -0.0104637 -0.000693529 0.0469371 -0.00477766 -0.000865609 
0.0530722 0.0011701 -0.00102 0.0587238 0.00723976 -0.00115575 0.0638847 0.0133038 -0.00127261 
0.0685598 0.019248 -0.00137075 0.0727631 0.0249717 -0.00145071 0.0765138 0.0303865 -0.00151324 
0.0798348 0.0354157 -0.00155921 0.0827505 0.0399928 -0.00158957 0.0852861 0.0440603 -0.00160528 
0.0874665 0.0475686 -0.00160731 0.0893158 0.0504751 -0.00159659 0.0908571 0.0527427 -0.001574 
-0.0121869 -0.10317 -0.0015868 -0.0096549 -0.100606 -0.00160377 -0.00743038 -0.0973796 -0.00160783 
-0.00553901 -0.0935261 -0.00159792 -0.00400821 -0.0890871 -0.00157287 -0.00286704 -0.0841111 -0.00153147 
-0.00214579 -0.0786552 -0.00147245 -0.0018753 -0.0727863 -0.00139452 -0.00208603 -0.0665831 -0.00129639 
-0.00280655 -0.0601374 -0.00117687 -0.00406121 -0.0535565 -0.00103493 -0.00586712 -0.0469644 -0.000869862 
-0.0082298 -0.040503 -0.000681428 -0.0111375 -0.0343326 -0.000470124 -0.0145539 -0.0286297 -0.00023747 
-0.0186258 -0.0234195 2.2688e-05 -0.0267803 -0.0165823 0.000454173 -0.0348303 -0.011642 0.000881271 
-0.0424964 -0.00870761 0.00129226 -0.049437 -0.00781358 0.0016728 -0.0552635 -0.00888708 0.00200659 
-0.0595705 -0.0117201 0.00227662 -0.0619819 -0.0159561 0.0024671 -0.0622044 -0.0211003 0.00256572 
-0.0600767 -0.0265593 0.00256572 -0.0555989 -0.0317035 0.0024671 -0.0489322 -0.0359395 0.00227662 
-0.0403699 -0.0387725 0.00200659 -0.0302881 -0.039846 0.00167281 -0.0190921 -0.038952 0.00129226 
-0.00717074 -0.0360176 0.000881272 0.00513456 -0.0310773 0.000454174 0.0175445 -0.0242401 2.2688e-05 
0.0258716 -0.0190299 -0.000237469 0.0335434 -0.013327 -0.000470124 0.0407064 -0.00715655 -0.000681428 
0.0473244 -0.000695186 -0.000869861 0.0533856 0.00589696 -0.00103493 0.0588956 0.0124778 -0.00117687 
0.0638714 0.0189235 -0.00129639 0.0683375 0.0251267 -0.00139452 0.0723223 0.0309956 -0.00147245 
0.0758564 0.0364515 -0.00153147 0.0789705 0.0414275 -0.00157287 0.081695 0.0458666 -0.00159792 
0.084059 0.04972 -0.00160783 0.0860898 0.0529463 -0.00160377 0.0878131 0.0555102 -0.0015868 
-0.0153604 -0.101509 -0.00159614 -0.0129884 -0.098652 -0.0016074 -0.0109202 -0.0951066 -0.00160466 
-0.00918369 -0.0909064 -0.00158663 -0.00780932 -0.0860904 -0.00155192 -0.00683013 -0.0807055 -0.001499 
-0.00628151 -0.074807 -0.00142624 -0.00620092 -0.068461 -0.00133192 -0.00662713 -0.0617462 -0.00121424 
-0.00759894 -0.0547566 -0.00107142 -0.00915329 -0.0476037 -0.00090176 -0.0113221 -0.0404198 -0.000703784 
-0.0141279 -0.0333602 -0.000476459 -0.0175772 -0.0266054 -0.00021948 -0.022598 -0.0194806 0.000109906 
-0.0313859 -0.0106181 0.000612881 -0.0404651 -0.00368181 0.00112927 -0.0496139 0.0011015 0.00164888 
-0.0585221 0.00354391 0.00215739 -0.0667849 0.00353777 0.00263617 -0.0739158 0.00110585 0.00306278 
-0.0793822 -0.00354942 0.00341271 -0.08267 -0.0100141 0.00366224 -0.0833659 -0.0176677 0.00379235 
-0.0812382 -0.0257365 0.00379235 -0.076287 -0.0333901 0.00366224 -0.0687439 -0.0398548 0.00341271 
-0.0590222 -0.0445101 0.00306278 -0.047636 -0.046942 0.00263617 -0.0351178 -0.0469482 0.00215739 
-0.0219544 -0.0445058 0.00164888 -0.00855019 -0.0397224 0.00112927 0.00478427 -0.0327862 0.000612881 
0.0178276 -0.0239236 0.000109906 0.0271036 -0.0167989 -0.00021948 0.0348083 -0.0100441 -0.000476459 
0.0418694 -0.00298447 -0.000703784 0.0482935 0.00419946 -0.000901759 0.0541032 0.0113523 -0.00107142 